# vtk DataFile Version 5.1
vtk output
ASCII
DATASET POLYDATA
POINTS 11896 double
-3.9013217926e-05 -3e-06 -1.5e-06 -3.9e-05 -3e-06 -1.7611541748e-06 -3.9e-05 -3.4668273926e-06 -1.5e-06 
-3.9e-05 -4.3150405884e-06 -2.0599841277e-18 -3.9040374756e-05 -3e-06 -2.0599841277e-18 -3.9061523438e-05 -1.5e-06 -1.5e-06 
-3.9e-05 -1.5e-06 -2.6100082397e-06 -3.9090625763e-05 -1.5e-06 -2.0599841277e-18 -3.9022144318e-05 0 -3e-06 
-3.9e-05 0 -3.2437362671e-06 -3.9e-05 -7.6329803467e-07 -3e-06 -3.9111591339e-05 0 -1.5e-06 
-3.9142204285e-05 0 -2.0599841277e-18 -3.7519123077e-05 -3.45e-05 -1.5e-06 -3.75e-05 -3.45e-05 -1.8219223022e-06 
-3.75e-05 -3.4803840637e-05 -1.5e-06 -3.75e-05 -3.5322097778e-05 -2.0599841277e-18 -3.7559680939e-05 -3.45e-05 -2.0599841277e-18 
-3.7524753571e-05 -3.3e-05 -3e-06 -3.75e-05 -3.3e-05 -3.2462539673e-06 -3.75e-05 -3.3394592285e-05 -3e-06 
-3.7657424927e-05 -3.3e-05 -1.5e-06 -3.771062851e-05 -3.3e-05 -2.0599841277e-18 -3.764484787e-05 -3.15e-05 -3e-06 
-3.75e-05 -3.15e-05 -4.1349334717e-06 -3.7797889709e-05 -3.15e-05 -1.5e-06 -3.7853141785e-05 -3.15e-05 -2.0599841277e-18 
-3.7541816711e-05 -3e-05 -4.5e-06 -3.75e-05 -3e-05 -4.7897644043e-06 -3.75e-05 -3.0727867126e-05 -4.5e-06 
-3.776525116e-05 -3e-05 -3e-06 -3.7922092438e-05 -3e-05 -1.5e-06 -3.7975078583e-05 -3e-05 -2.0599841277e-18 
-3.7641345978e-05 -2.85e-05 -4.5e-06 -3.75e-05 -2.85e-05 -5.361831665e-06 -3.7878765106e-05 -2.85e-05 -3e-06 
-3.8030799866e-05 -2.85e-05 -1.5e-06 -3.8080410004e-05 -2.85e-05 -2.0599841277e-18 -3.7742271423e-05 -2.7e-05 -4.5e-06 
-3.75e-05 -2.7e-05 -5.8234634399e-06 -3.798273468e-05 -2.7e-05 -3e-06 -3.8127262115e-05 -2.7e-05 -1.5e-06 
-3.8173530579e-05 -2.7e-05 -2.0599841277e-18 -3.7544563293e-05 -2.55e-05 -6e-06 -3.75e-05 -2.55e-05 -6.2408981323e-06 
-3.75e-05 -2.6388793945e-05 -6e-06 -3.7840118408e-05 -2.55e-05 -4.5e-06 -3.8077583313e-05 -2.55e-05 -3e-06 
-3.8214168549e-05 -2.55e-05 -1.5e-06 -3.8257392883e-05 -2.55e-05 -2.0599841277e-18 -3.7626422882e-05 -2.4e-05 -6e-06 
-3.75e-05 -2.4e-05 -6.6429519653e-06 -3.7934257507e-05 -2.4e-05 -4.5e-06 -3.8164661407e-05 -2.4e-05 -3e-06 
-3.8293430328e-05 -2.4e-05 -1.5e-06 -3.8333919525e-05 -2.4e-05 -2.0599841277e-18 -3.7712619781e-05 -2.25e-05 -6e-06 
-3.75e-05 -2.25e-05 -7.0027542114e-06 -3.8024082184e-05 -2.25e-05 -4.5e-06 -3.8244987488e-05 -2.25e-05 -3e-06 
-3.8366363525e-05 -2.25e-05 -1.5e-06 -3.8404415131e-05 -2.25e-05 -2.0599841277e-18 -3.7797889709e-05 -2.1e-05 -6e-06 
-3.75e-05 -2.1e-05 -7.3162307739e-06 -3.8108230591e-05 -2.1e-05 -4.5e-06 -3.8319271088e-05 -2.1e-05 -3e-06 
-3.8433929443e-05 -2.1e-05 -1.5e-06 -3.8469818115e-05 -2.1e-05 -2.0599841277e-18 -3.7524524689e-05 -1.95e-05 -7.5e-06 
-3.75e-05 -1.95e-05 -7.6078491211e-06 -3.75e-05 -2.0071838379e-05 -7.5e-06 -3.7880653381e-05 -1.95e-05 -6e-06 
-3.8186782837e-05 -1.95e-05 -4.5e-06 -3.8388256073e-05 -1.95e-05 -3e-06 -3.8496860504e-05 -1.95e-05 -1.5e-06 
-3.8530838013e-05 -1.95e-05 -2.0599841277e-18 -3.7594871521e-05 -1.8e-05 -7.5e-06 -3.75e-05 -1.8e-05 -7.9046401978e-06 
-3.7960922241e-05 -1.8e-05 -6e-06 -3.8260322571e-05 -1.8e-05 -4.5e-06 -3.8452640533e-05 -1.8e-05 -3e-06 
-3.8555786133e-05 -1.8e-05 -1.5e-06 -3.8588035583e-05 -1.8e-05 -2.0599841277e-18 -3.7665081024e-05 -1.65e-05 -7.5e-06 
-3.75e-05 -1.65e-05 -8.181060791e-06 -3.8038021088e-05 -1.65e-05 -6e-06 -3.8329319e-05 -1.65e-05 -4.5e-06 
-3.8512973785e-05 -1.65e-05 -3e-06 -3.8611175537e-05 -1.65e-05 -1.5e-06 -3.8641891479e-05 -1.65e-05 -2.0599841277e-18 
-3.7735393524e-05 -1.5e-05 -7.5e-06 -3.75e-05 -1.5e-05 -8.4354171753e-06 -3.8111995697e-05 -1.5e-05 -6e-06 
-3.8394172668e-05 -1.5e-05 -4.5e-06 -3.8569725037e-05 -1.5e-05 -3e-06 -3.8663452148e-05 -1.5e-05 -1.5e-06 
-3.8692783356e-05 -1.5e-05 -2.0599841277e-18 -3.7806747437e-05 -1.35e-05 -7.5e-06 -3.75e-05 -1.35e-05 -8.668258667e-06 
-3.8182662964e-05 -1.35e-05 -6e-06 -3.845520401e-05 -1.35e-05 -4.5e-06 -3.8623271942e-05 -1.35e-05 -3e-06 
-3.871295929e-05 -1.35e-05 -1.5e-06 -3.8741043091e-05 -1.35e-05 -2.0599841277e-18 -3.7876544952e-05 -1.2e-05 -7.5e-06 
-3.75e-05 -1.2e-05 -8.880821228e-06 -3.824949646e-05 -1.2e-05 -6e-06 -3.8512687683e-05 -1.2e-05 -4.5e-06 
-3.8673957825e-05 -1.2e-05 -3e-06 -3.8760028839e-05 -1.2e-05 -1.5e-06 -3.8787002563e-05 -1.2e-05 -2.0599841277e-18 
-3.7523597717e-05 -1.05e-05 -9e-06 -3.75e-05 -1.05e-05 -9.0841598511e-06 -3.75e-05 -1.1142379761e-05 -9e-06 
-3.7944179535e-05 -1.05e-05 -7.5e-06 -3.8312576294e-05 -1.05e-05 -6e-06 -3.8566978455e-05 -1.05e-05 -4.5e-06 
-3.8722126007e-05 -1.05e-05 -3e-06 -3.8804946899e-05 -1.05e-05 -1.5e-06 -3.8830924988e-05 -1.05e-05 -2.0599841277e-18 
-3.7582397461e-05 -9e-06 -9e-06 -3.75e-05 -9e-06 -9.288734436e-06 -3.8009536743e-05 -9e-06 -7.5e-06 
-3.8372200012e-05 -9e-06 -6e-06 -3.8618442535e-05 -9e-06 -4.5e-06 -3.8768096924e-05 -9e-06 -3e-06 
-3.8848045349e-05 -9e-06 -1.5e-06 -3.8873130798e-05 -9e-06 -2.0599841277e-18 -3.7639938354e-05 -7.5e-06 -9e-06 
-3.75e-05 -7.5e-06 -9.481086731e-06 -3.8071975708e-05 -7.5e-06 -7.5e-06 -3.8428585052e-05 -7.5e-06 -6e-06 
-3.8667388916e-05 -7.5e-06 -4.5e-06 -3.881219101e-05 -7.5e-06 -3e-06 -3.8889644623e-05 -7.5e-06 -1.5e-06 
-3.8913986206e-05 -7.5e-06 -2.0599841277e-18 -3.7695453644e-05 -6e-06 -9e-06 -3.75e-05 -6e-06 -9.6594543457e-06 
-3.8131450653e-05 -6e-06 -7.5e-06 -3.8482040405e-05 -6e-06 -6e-06 -3.8714138031e-05 -6e-06 -4.5e-06 
-3.8854785919e-05 -6e-06 -3e-06 -3.8930236816e-05 -6e-06 -1.5e-06 -3.8954029083e-05 -6e-06 -2.0599841277e-18 
-3.7748954773e-05 -4.5e-06 -9e-06 -3.75e-05 -4.5e-06 -9.8247528076e-06 -3.818813324e-05 -4.5e-06 -7.5e-06 
-3.8532817841e-05 -4.5e-06 -6e-06 -3.8759010315e-05 -4.5e-06 -4.5e-06 -3.889629364e-05 -4.5e-06 -3e-06 
-3.8970611572e-05 -4.5e-06 -1.5e-06 -3.899432373e-05 -4.5e-06 -2.0599841277e-18 -3.7800636292e-05 -3e-06 -9e-06 
-3.75e-05 -3e-06 -9.978263855e-06 -3.8242218018e-05 -3e-06 -7.5e-06 -3.8581169128e-05 -3e-06 -6e-06 
-3.8802268982e-05 -3e-06 -4.5e-06 -3.8937309265e-05 -3e-06 -3e-06 -3.7850944519e-05 -1.5e-06 -9e-06 
-3.75e-05 -1.5e-06 -1.0121246338e-05 -3.8293865204e-05 -1.5e-06 -7.5e-06 -3.8627243042e-05 -1.5e-06 -6e-06 
-3.884418869e-05 -1.5e-06 -4.5e-06 -3.8978565216e-05 -1.5e-06 -3e-06 -3.7900966644e-05 0 -9e-06 
-3.75e-05 0 -1.0254570007e-05 -3.8343097687e-05 0 -7.5e-06 -3.8671154022e-05 0 -6e-06 
-3.888502121e-05 0 -4.5e-06 -3.6035259247e-05 -5.7e-05 -2.0599841277e-18 -3.6e-05 -5.7e-05 -1.2699508667e-06 
-3.6e-05 -5.7428260803e-05 -2.0599841277e-18 -3.612915802e-05 -5.55e-05 -1.5e-06 -3.6e-05 -5.55e-05 -2.986907959e-06 
-3.6e-05 -5.6929458618e-05 -1.5e-06 -3.617522049e-05 -5.55e-05 -2.0599841277e-18 -3.6130485535e-05 -5.4e-05 -3e-06 
-3.6e-05 -5.4e-05 -3.9763183594e-06 -3.6e-05 -5.5487342834e-05 -3e-06 -3.6265743256e-05 -5.4e-05 -1.5e-06 
-3.6310970306e-05 -5.4e-05 -2.0599841277e-18 -3.6044826508e-05 -5.25e-05 -4.5e-06 -3.6e-05 -5.25e-05 -4.7692565918e-06 
-3.6e-05 -5.3100311279e-05 -4.5e-06 -3.6261806488e-05 -5.25e-05 -3e-06 -3.6394329071e-05 -5.25e-05 -1.5e-06 
-3.6437187195e-05 -5.25e-05 -2.0599841277e-18 -3.6170391083e-05 -5.1e-05 -4.5e-06 -3.6e-05 -5.1e-05 -5.4350280762e-06 
-3.6388183594e-05 -5.1e-05 -3e-06 -3.651386261e-05 -5.1e-05 -1.5e-06 -3.6553871155e-05 -5.1e-05 -2.0599841277e-18 
-3.6002666473e-05 -4.95e-05 -6e-06 -3.6e-05 -4.95e-05 -6.0135040283e-06 -3.6e-05 -4.953993988e-05 -6e-06 
-3.6295188904e-05 -4.95e-05 -4.5e-06 -3.6506996155e-05 -4.95e-05 -3e-06 -3.6624904633e-05 -4.95e-05 -1.5e-06 
-3.6662120819e-05 -4.95e-05 -2.0599841277e-18 -3.6120220184e-05 -4.8e-05 -6e-06 -3.6e-05 -4.8e-05 -6.5575332642e-06 
-3.6416965485e-05 -4.8e-05 -4.5e-06 -3.6618415833e-05 -4.8e-05 -3e-06 -3.6728542328e-05 -4.8e-05 -1.5e-06 
-3.6763183594e-05 -4.8e-05 -2.0599841277e-18 -3.6240142822e-05 -4.65e-05 -6e-06 -3.6e-05 -4.65e-05 -7.0354614258e-06 
-3.6532836914e-05 -4.65e-05 -4.5e-06 -3.6722934723e-05 -4.65e-05 -3e-06 -3.6825862885e-05 -4.65e-05 -1.5e-06 
-3.6858181e-05 -4.65e-05 -2.0599841277e-18 -3.6358692169e-05 -4.5e-05 -6e-06 -3.6e-05 -4.5e-05 -7.4694213867e-06 
-3.6642425537e-05 -4.5e-05 -4.5e-06 -3.6821399689e-05 -4.5e-05 -3e-06 -3.6917861938e-05 -4.5e-05 -1.5e-06 
-3.6948165894e-05 -4.5e-05 -2.0599841277e-18 -3.6102104187e-05 -4.35e-05 -7.5e-06 -3.6e-05 -4.35e-05 -7.9068145752e-06 
-3.6e-05 -4.4902679443e-05 -7.5e-06 -3.6474769592e-05 -4.35e-05 -6e-06 -3.6746166229e-05 -4.35e-05 -4.5e-06 
-3.6914749146e-05 -4.35e-05 -3e-06 -3.700554657e-05 -4.35e-05 -1.5e-06 -3.7034111023e-05 -4.35e-05 -2.0599841277e-18 
-3.6214679718e-05 -4.2e-05 -7.5e-06 -3.6e-05 -4.2e-05 -8.298614502e-06 -3.658599472e-05 -4.2e-05 -6e-06 
-3.6844528198e-05 -4.2e-05 -4.5e-06 -3.7003875732e-05 -4.2e-05 -3e-06 -3.7089878082e-05 -4.2e-05 -1.5e-06 
-3.7117012024e-05 -4.2e-05 -2.0599841277e-18 -3.6326568604e-05 -4.05e-05 -7.5e-06 -3.6e-05 -4.05e-05 -8.6476135254e-06 
-3.6692001343e-05 -4.05e-05 -6e-06 -3.693825531e-05 -4.05e-05 -4.5e-06 -3.7089752197e-05 -4.05e-05 -3e-06 
-3.717193222e-05 -4.05e-05 -1.5e-06 -3.7198001862e-05 -4.05e-05 -2.0599841277e-18 -3.6437599182e-05 -3.9e-05 -7.5e-06 
-3.6e-05 -3.9e-05 -8.9761276245e-06 -3.679315567e-05 -3.9e-05 -6e-06 -3.7028194427e-05 -3.9e-05 -4.5e-06 
-3.7173454285e-05 -3.9e-05 -3e-06 -3.7253025055e-05 -3.9e-05 -1.5e-06 -3.727854538e-05 -3.9e-05 -2.0599841277e-18 
-3.6095535278e-05 -3.75e-05 -9e-06 -3.6e-05 -3.75e-05 -9.3295211792e-06 -3.6e-05 -3.8902198792e-05 -9e-06 
-3.6546936035e-05 -3.75e-05 -7.5e-06 -3.6889732361e-05 -3.75e-05 -6e-06 -3.7115180969e-05 -3.75e-05 -4.5e-06 
-3.7256240845e-05 -3.75e-05 -3e-06 -3.7335033417e-05 -3.75e-05 -1.5e-06 -3.7360965729e-05 -3.75e-05 -2.0599841277e-18 
-3.6200614929e-05 -3.6e-05 -9e-06 -3.6e-05 -3.6e-05 -9.653503418e-06 -3.6651603699e-05 -3.6e-05 -7.5e-06 
-3.698191452e-05 -3.6e-05 -6e-06 -3.7200107574e-05 -3.6e-05 -4.5e-06 -3.7339897156e-05 -3.6e-05 -3e-06 
-3.7421230316e-05 -3.6e-05 -1.5e-06 -3.7449817657e-05 -3.6e-05 -2.0599841277e-18 -3.630348587e-05 -3.45e-05 -9e-06 
-3.6e-05 -3.45e-05 -9.9413452148e-06 -3.6750904083e-05 -3.45e-05 -7.5e-06 -3.707012558e-05 -3.45e-05 -6e-06 
[...]
POINT_DATA 11896
SCALARS G_K_per_um double
LOOKUP_TABLE default
11.726118093 11.722338193 11.677429202 11.616805175 11.753327621 11.883555452 11.869093133 11.909179267 12.025872735 
12.02108293 11.94335536 12.041161356 12.06491437 8.7064319531 8.7218321832 8.7044047805 8.6485364927 8.6219921542 
8.8129165959 8.8246628807 8.8034001811 8.5969965606 8.3727694382 8.793195986 8.9254937781 8.6322948125 8.4439448035 
9.0671271759 9.075550737 9.0218482108 8.8505528159 8.7560995688 8.6215465642 9.1265037964 9.1806847214 8.95775191 
8.9145052472 8.8267725276 9.2035187876 9.3290358386 9.0939209111 9.0853212724 9.0324023474 9.4791123811 9.4801638313 
9.4027994954 9.3115493093 9.2465177559 9.2600170667 9.2313713256 9.6048557417 9.6095351086 9.4378975269 9.4072973377 
9.435052558 9.4238024417 9.6936337093 9.7255351712 9.5721521988 9.5718583854 9.6088917073 9.6105246366 9.7976542575 
9.8678829354 9.7166412339 9.7383448857 9.7809170478 9.791790743 10.023066002 10.022812499 9.969372666 9.919723408 
9.8688499688 9.9054507082 9.9509247313 9.9683438483 10.17016484 10.167426616 10.053305281 10.025852579 10.072350451 
10.118929561 10.140956541 10.31657973 10.310087989 10.195024585 10.18554725 10.238532577 10.285021944 10.310314767 
10.451648651 10.446592619 10.34022626 10.34656154 10.403758286 10.449365218 10.476965164 10.571675498 10.581989844 
10.486751416 10.508354104 10.567993597 10.612155688 10.641331876 10.699732384 10.730476045 10.637774633 10.670908447 
10.731328045 10.77361555 10.803770968 10.887451576 10.888195257 10.822473408 10.837290936 10.793142421 10.834069073 
10.893884785 10.933961165 10.964603701 11.044954588 11.045835879 10.98202618 10.951979072 10.997661053 11.05578772 
11.093390406 11.124112138 11.205866824 11.205070321 11.133704233 11.113447962 11.161523627 11.21715769 11.252073915 
11.282535761 11.369601233 11.366005816 11.29063786 11.276858723 11.325592871 11.37813667 11.410187659 11.440101226 
11.535380222 11.528613665 11.451426955 11.44176929 11.489919834 11.538961671 11.568052706 11.597247193 11.702092116 
11.692555273 11.614970673 11.607943937 11.654677437 11.700233688 11.867073432 11.856811165 11.780085588 11.775288394 
11.820169664 11.862831742 12.023613565 12.02028775 11.945050937 11.943897353 11.987153562 6.4379556248 6.5943542731 
6.4286090974 6.7230509039 6.7758658587 6.6275939777 6.6106817428 6.8757984565 6.9468386331 6.7772053879 6.8762659069 
6.8127993773 7.0464983437 7.0841808708 7.0231754622 7.0170696193 7.0505973038 7.020948541 7.1527511533 7.2325468425 
7.1784580569 7.2316550389 7.2254753589 7.3312667731 7.3326612102 7.3301291319 7.2884045819 7.3491115368 7.412495896 
7.4214901163 7.4257892498 7.4873216299 7.4398963641 7.5224546102 7.5898705518 7.6082400041 7.5459811406 7.6332105582 
7.6000337146 7.6944961681 7.7621205679 7.7859458284 7.6808000017 7.7267868141 7.7635363151 7.8629995074 7.9283598486 
7.954930461 7.8145202129 7.844679058 7.7337624181 7.8261680732 7.9275043047 8.0266796332 8.08800363 8.1151979231 
7.9324633327 7.9966122977 7.9791652285 8.0894625307 8.1843935823 8.2402591927 8.26629148 8.0670062736 8.1527228152 
8.1349749413 8.247330219 8.3348442797 8.3836617092 8.4065935297 8.2054544226 8.2588563627 8.2903218664 8.3993834099 
8.4760131339 8.5150995777 8.5319123528 8.3421627474 8.3549834483 8.265609685 8.3465920345 8.4438013899 8.5436791369 
8.6041354562 8.6274405451 8.6317309042 8.4553786005 8.4850699848 8.493857455 8.5936314823 8.6772714621 8.7118714846 
8.7037268011 8.6793023961 8.5898641642 8.6345342079 8.6438776573 8.7375255003 8.7961585315 8.7860839706 8.7354077976 
8.7919574145 8.7931479933 8.8738227967 8.8969131249 8.8844315284 8.9461417311 8.939616125 9.0023457799 8.9812399475 
9.0551583595 9.0564039431 8.9728589562 9.026442605 9.0825071116 9.1253749264 9.1583494894 9.1655459671 9.1661679062 
9.2220607508 9.2413280293 9.2805696666 9.2956900176 9.3086611814 9.3593350501 9.3552013577 9.41771651 9.4398608706 
9.4529966039 9.4966760754 9.5637780539 9.5913145752 9.5972247463 9.632413926 9.7148105897 9.7464811883 9.7398422505 
9.7605573289 9.8684288576 9.9048254358 9.8816077969 9.8880657654 10.058890949 10.062017418 9.9293867864 10.020516524 
10.024891333 10.207966811 10.210274516 10.170928063 10.171627617 10.334028596 10.337661999 10.314154822 10.317170313 
10.464622354 10.471618782 10.456707748 10.459776236 10.605508894 10.616253611 10.600804796 10.59934964 10.754707202 
10.768928974 10.747172596 10.739884487 10.909905701 10.927093562 10.897794068 11.069395036 11.08905381 11.054175841 
11.231732283 11.253822598 11.212977373 11.395981146 11.421450752 11.373484585 11.590035199 11.592282668 11.470266343 
11.560330744 11.535584715 11.760658476 11.765795716 11.725657309 11.699072362 11.933972158 11.941796746 11.892760214 
11.863337648 12.109666957 12.120139074 12.061537772 12.027721341 5.5411708681 5.5202050261 5.4550002069 5.3486805045 
5.5079370246 5.6590716575 5.6413905289 5.5475997983 5.7170731169 5.7078997633 5.7480962413 5.7532773866 5.7061892715 
5.8327958333 5.9033817193 5.9084311502 5.9086524651 5.8726909352 6.0148961806 6.0907824887 6.1050923002 5.9690888285 
5.978315492 5.9300112137 6.0813842524 6.1975079683 6.273435302 6.2925300303 6.1218088429 6.1105231139 6.2575919529 
6.3753875967 6.4473235942 6.4673256791 6.287297337 6.2024727091 6.4317542393 6.5440444483 6.608145204 6.6249909797 
6.316760043 6.3358066096 6.2272476953 6.4552262202 6.5987310687 6.698152828 6.7483946503 6.7556783413 6.4662992438 
6.4608688069 6.6207881942 6.7531872603 6.8284941 6.8502272458 6.832671552 6.6255065552 6.5546737038 6.7796864486 
6.8878877311 6.9157198797 6.8653015379 6.7777758799 6.6517151811 6.6625766494 6.6082368256 6.7858447331 6.9271621774 
6.9929702698 6.9185556355 6.7149071769 6.47478226 6.7949242176 6.825205017 6.9410859061 7.0592439458 7.0592801497 
6.8272619944 6.6275425228 6.9416642174 6.9393324217 7.0895040222 7.1717433463 7.0605622696 6.777142894 7.0927716084 
7.0250114563 7.2298559965 7.2665433964 7.0273875166 7.1116739675 7.1154230754 7.0880898716 7.2442934238 7.3593732463 
7.339614177 7.2501380989 7.2691429942 7.3905058598 7.4721705858 7.3355526345 7.400901099 7.4263646358 7.5319729907 
7.5753716222 7.5520832539 7.5614183793 7.6658944799 7.6717290522 7.6952865032 7.6447400583 7.7876924334 7.724606877 
7.7196297169 7.7204416745 7.7118004668 7.8369715974 7.899670899 7.7319858427 7.8459273173 7.8550525317 7.9753551336 
8.0145489295 7.9916643925 8.0057712575 8.1118743899 8.1269659082 8.1463367358 8.1619515473 8.2424142415 8.2240373889 
8.3030462396 8.3161911413 8.3631224484 8.2633294003 8.4563212874 8.457590779 8.4846795408 8.5958214244 8.5505693034 
8.6058424144 8.6385066977 8.6447431768 8.5798207627 8.7262984674 8.7267190246 8.7590200122 8.7709758148 8.8551875244 
8.8459963783 8.8997774022 8.9132874963 8.9845843218 8.9567831922 9.0520485565 9.064352592 9.1163248147 9.2093052307 
9.2187529221 9.2492960022 9.3675035103 9.3732951845 9.38231524 9.5243474624 9.5263373551 9.5149245104 9.6784809169 
9.6768730349 9.6467170748 9.8281738223 9.8232045299 9.7777713681 9.9576998499 9.9632339782 9.824627623 9.9666887664 
9.9094063571 10.079601544 10.093173231 10.102809203 10.211791808 10.235021114 10.241913767 10.3551929 10.388188396 
10.382122717 10.506477645 10.546738566 10.524440703 10.662632425 10.705036075 10.66929008 10.821932435 10.865106494 
10.816476527 10.983120232 11.027168857 10.965709322 11.145463823 11.19101406 11.116801072 11.308733448 11.356555607 
11.269764913 11.473537737 11.523966451 11.425172942 11.642879698 11.693646384 11.815980529 11.8660673 12.040308724 
12.041056686 11.936387035 11.990174283 12.216939401 12.219033534 12.165564598 4.7025123294 4.6524369663 4.6061898806 
4.5525572753 4.7023677389 4.8140661875 4.7434802999 4.6664522214 4.8915074159 4.8998585036 4.8771818078 4.8407327523 
4.7762464192 5.0037659862 5.0834228069 5.0948952979 5.063588871 4.9238460473 5.1915255033 5.266768368 5.2765975756 
5.0780491861 5.0377932181 4.9389915235 5.2480089929 5.3662824631 5.4273802994 5.4263205166 5.2594596581 5.1240890666 
5.4204925959 5.5122165976 5.5345503793 5.4974290703 5.2355848688 5.2259498042 5.1644711863 5.435236743 5.5689085856 
5.5989893137 5.5010183017 5.3435239497 5.410070319 5.3419634456 5.5965588431 5.6760687859 5.5708363004 5.4442893764 
5.2753780971 5.5822572843 5.4216417919 5.7362654549 5.7157538436 5.5372569859 5.4268389581 5.2907640012 5.5289168083 
5.5255189591 5.4581536124 5.7446188201 5.8487450933 5.7017111037 5.524629845 5.438867553 5.3393633192 5.6963323182 
5.651093513 5.8915401215 5.9139381308 5.6886699183 5.5373624414 5.8637707626 5.7458251086 6.019383467 5.9138049671 
5.6892495405 6.0239722715 5.8191722377 6.1267176057 5.9105805568 5.9572096537 5.9579596927 5.832138255 6.1685232502 
6.1868721809 5.9162550725 6.1182257815 6.0807590664 6.2975271135 6.193137397 6.2787311632 6.1765341544 6.4143378474 
6.2023856672 6.432849786 6.2560185113 6.5112851239 6.218684878 6.3609773644 6.3655526043 6.3003659421 6.5733249258 
6.5526288739 6.5225403424 6.5297463481 6.6994266987 6.5670163315 6.6788140106 6.6545540302 6.8156922261 6.5872086049 
6.8293567848 6.74419667 6.924244493 6.9737286935 6.8193628965 7.0159512402 6.8991626434 6.9002656673 6.8840541747 
7.1063555238 7.0399179729 7.0531902867 7.059060437 7.2280864331 7.0604485621 7.2168619599 7.2200800975 7.3467954849 
7.3800269832 7.3724984612 7.4668950816 7.5291827466 7.4873337129 7.576279251 7.6622788346 7.5652721836 7.6542912447 
7.785475098 7.6345462452 7.68160736 7.7454645508 7.7543438028 7.6600058999 7.9040256067 7.8944718971 7.907727465 
8.0303003475 8.0535461229 8.0624435876 8.1581276737 8.2155576389 8.2156775592 8.2836418035 8.3753391948 8.365590807 
8.4030554679 8.5278118781 8.507422034 8.5072038021 8.6653478399 8.6261932032 8.5626996549 8.7901820518 8.7092606235 
8.8070111273 8.8119434871 8.7513828857 8.9158968714 8.9400611362 8.9564403441 9.0432781737 9.0861669663 9.114456603 
9.1736368397 9.2385439975 9.2776382224 9.3053306366 9.3929358762 9.4368519046 9.4371074047 9.5476623691 9.5877790644 
9.5681636068 9.7024592495 9.7366739724 9.6976239998 9.857527623 9.8862218919 9.8234526535 10.018631952 10.036674951 
10.1800673 10.186890189 10.340552214 10.335927324 10.483149268 10.483163657 10.481215191 10.498595885 10.629135896 
10.630942782 10.64840857 10.768158093 10.773661157 10.792110874 10.913282448 10.924080047 10.937177421 11.065220028 
11.082329431 11.085175303 11.222519668 11.246564009 11.236136715 11.383900116 11.415248338 11.389913399 11.548580054 
11.587408004 11.546546808 11.71623091 11.762481684 11.706303322 11.887096869 11.940231224 11.869607509 12.062926596 
12.120708832 12.243720426 12.30378933 4.008913685 3.9447756683 3.9030195994 3.8620777257 4.0122803384 4.1218316066 
4.0226148645 3.951693153 4.197547796 4.1975320319 4.1811153738 4.1072117492 4.0401390601 4.3049140665 4.361695598 
4.3418226907 4.18731557 4.1814249932 4.1723230806 4.3637978993 4.4518676247 4.436138732 4.3428258298 4.3742578865 
4.2767001195 4.5178713143 4.5117066287 4.4548320054 4.3369502493 4.547873646 4.3466780033 4.6143586404 4.5381891022 
4.480335736 4.3806507515 4.5165916952 4.4532867054 4.3540543551 4.6946431234 4.655531255 4.5624327698 4.5135787023 
4.4373078622 4.6915036497 4.5328590442 4.7891871062 4.6799487131 4.5899280309 4.5487753364 4.4902431298 4.6130368385 
4.6078705207 4.5899008549 4.8488064282 4.8320733896 4.700392291 4.6203276021 4.5860261113 4.5415344233 4.7935398858 
4.7280841452 4.9779740708 4.8581569832 4.7243035722 4.6578002768 4.9630002865 4.8113819382 5.0401067906 4.8752273765 
4.7572071182 5.1165959139 4.874919943 5.0728937704 4.8970256328 5.0281654221 4.9982388981 4.8878636156 5.2462450094 
5.0966178469 4.9298154553 5.2010963759 5.1094902518 5.3231207205 5.117714904 5.3609366485 5.1929795055 5.3580156938 
5.143080628 5.504608553 5.254796996 5.3858433931 5.4013872306 5.3840013296 5.2664871573 5.6244085817 5.4140304194 
5.5696821181 5.5036601195 5.6940054449 5.4396300212 5.7287358452 5.5999972463 5.7269810195 5.8752769463 5.6775979995 
5.7594632327 5.7493753181 5.7497067381 5.7380833808 6.0060765739 5.7918677413 5.9172758213 5.9096687774 6.1117662863 
5.824818705 6.0777994208 6.0329901889 6.1691283101 6.2296213064 6.1318066708 6.2019943331 6.3714505664 6.2136237221 
6.2357623978 6.5027109429 6.2850851797 6.2736121976 6.400966213 6.4030949381 6.3200752282 6.623631897 6.5709517583 
6.5689802906 6.7301593952 6.7348919343 6.7181930931 6.7806047114 6.8776620993 6.8217025618 6.8097980099 7.0100854538 
6.9061595875 6.8438319512 7.1373387348 6.9824454301 7.2669724701 7.0553651193 7.195825112 7.2058885086 7.0676902512 
7.388968956 7.357915699 7.3691087428 7.4980237066 7.5203290199 7.5246176676 7.565368021 7.6774665582 7.6711320198 
7.602228279 7.8257865415 7.8031985977 7.642127596 7.9582271699 7.8947164248 8.0877353401 7.9721646512 8.2148555606 
8.0483358527 8.1635061302 8.1697483411 8.0793724091 8.3377069501 8.3135868794 8.331914872 8.4570303665 8.4698469731 
8.5014960445 8.57011102 8.6267411776 8.6720366273 8.6611341625 8.7815460279 8.8363137423 8.7193491179 8.9379417449 
8.9835421906 9.099451177 9.1236453542 9.2605799395 9.2594043548 9.417366346 9.3906240959 9.561968072 9.5048501905 
9.6931437292 9.6008003815 9.7154350499 9.7172522038 9.6312041734 9.820114084 9.8511019182 9.8580974478 9.9484780771 
9.996283298 10.010824708 10.079878038 10.147241151 10.171152776 10.213369664 10.301704926 10.336376547 10.348024315 
10.45939121 10.505328818 10.624676022 10.677911078 10.793399185 10.852764448 10.964015108 11.028765813 11.135757316 
11.205245885 11.30826454 11.381906923 11.4814151 11.55868099 11.655246015 11.735635138 11.829898459 11.912909114 
12.00559632 12.090676322 12.182601219 12.269129502 12.361066034 12.448461775 3.2530978713 3.2600277767 3.2314470955 
3.3703763484 3.3455038994 3.3252837898 3.2759779597 3.4248904873 3.3964849427 3.433187353 3.4206086668 3.4089975365 
3.5224260019 3.5342427408 3.466708864 3.5990179947 3.4980315958 3.6267451593 3.61814344 3.548273587 3.6251431625 
3.5780020577 3.5302048192 3.7147689128 3.704948654 3.6919935441 3.6345363391 3.7807919372 3.6519973095 3.7971125896 
3.7704721295 3.7561871518 3.7099172616 3.7676388545 3.7332638637 3.6903674536 3.8884895661 3.8592411444 3.82597387 
3.8094729007 3.7702923256 3.9366233431 3.8149976753 3.9646694692 3.9100300927 3.872197457 3.8521224973 3.8164793173 
4.0567619441 3.880639812 4.0181855674 3.9525082517 3.9106834811 3.8876415428 3.8546461916 4.0399596858 3.980456979 
3.8925372265 4.139726965 4.0606906534 3.9899665442 3.9476395924 4.2038405654 4.0612189629 4.1992800656 4.0977629312 
4.0292641488 4.3179034799 4.1260756971 4.2400245156 4.1345641543 4.268291419 4.2304585665 4.1474916689 4.3948328406 
4.2736009459 4.4388979926 4.3272057899 4.4507353992 4.3100009505 4.5810616036 4.3965656497 4.4902762273 4.3491358241 
4.6687669727 4.4561279543 4.5224567193 4.6292966096 4.5853433026 4.4597831823 4.7285475144 4.5557634171 4.7984888091 
4.6905631891 4.7751526575 4.9447664762 4.768654691 4.8157309916 5.0368464223 4.8252343442 4.8463796693 4.9504421424 
4.9345850443 4.8494276131 5.0930577817 4.8791353485 5.1222965528 5.0602887579 5.1424897792 5.2819391375 5.1601859887 
5.1881741655 5.4199589245 5.2392925989 5.2262384267 5.511169389 5.3029379661 5.2587646231 5.4172479542 5.4128151199 
5.332183977 5.5650992521 5.5843757641 5.5520765194 5.6113636004 5.7416612446 5.6640749045 5.6564607453 5.8862273621 
5.7561297358 5.6989703995 6.0135026691 5.8331167581 6.1098155881 5.8998070816 6.0253789479 6.0263248688 5.9283414274 
6.1627091053 6.1965865816 6.1903134949 6.2061413876 6.349597876 6.3162103435 6.2486469462 6.4891391473 6.4136782849 
6.2940603471 6.6236696092 6.497460802 6.7536554033 6.5746564025 6.86221229 6.647101013 6.7707416202 6.7779713808 
6.6790147284 6.9154978818 6.938498243 6.95493492 6.9585418023 7.1026691825 7.1155512164 7.0050029386 7.2598802649 
7.2591353581 7.0578466482 7.4060220171 7.3718246493 7.5384097953 7.4537903063 7.6641610645 7.5263318774 7.7827233032 
7.5980058223 7.6751579488 7.6753799935 7.6697609019 7.8864441889 7.8303015846 7.8390503748 7.9445802198 7.9918079801 
8.0141278697 7.9956362172 8.1548948795 8.1938654758 8.0534804181 8.320910139 8.3737203474 8.4888664447 8.5467163211 
8.6528850314 8.6964189452 8.810227138 8.8218059005 8.9553883976 8.9268793758 9.0784299612 9.0006417643 9.1956156007 
9.0700957408 9.3108259125 9.1463418167 9.2776818629 9.2804776925 9.1463729929 9.4219409917 9.4218719861 9.431446686 
9.5198697029 9.5741757491 9.593658031 9.603736813 9.7352240334 9.76395453 9.9033189327 9.9391733137 10.07440495 
10.116466617 10.246510737 10.294205391 10.418776056 10.471617622 10.590916217 10.648362752 10.762910771 10.824311038 
10.934464577 10.999326037 11.105433613 11.173397629 11.275860049 11.346641788 11.445903399 11.519269758 11.61578624 
11.691532003 11.785762173 11.863696339 11.956106026 12.036042871 12.127100106 12.208851177 12.299020763 12.38239926 
12.472122091 12.556977186 2.8051386544 2.7676298457 2.7221468771 2.6690022786 2.7750444319 2.9003072308 2.8436155458 
2.7693723156 2.924666191 2.8917515486 2.9724881812 2.9225034017 2.8525175392 3.0118620086 3.0266299891 2.996060152 
3.0112603384 2.9928996462 2.9677655739 3.0858296191 3.1042889207 3.1110250172 3.0825331559 3.1447690605 3.0705874913 
3.1765793696 3.1793533451 3.1774882701 3.1487249835 3.1548191502 3.138036782 3.1152010578 3.2472988326 3.2491774273 
3.2375669353 3.2258001212 3.194050569 3.2944078388 3.2206618077 3.3266492432 3.3062623743 3.2795647664 3.2565500552 
3.2193793917 3.4026286973 3.2853120043 3.3890479922 3.3496007904 3.3077116527 3.2745354424 3.4160782836 3.3697766594 
3.3000842054 3.4815635251 3.4377728184 3.3826012265 3.5448124789 3.4487060622 3.5419470068 3.4770405352 3.6435518524 
3.5117598018 3.5897960181 3.5134194727 3.6460792382 3.6023177131 3.5276707289 3.7139654408 3.6301443657 3.7807099669 
3.6872928978 3.7651933059 3.6680748548 3.8845903088 3.7562508095 3.807673497 3.8337783185 3.8256291547 3.806126855 
3.9619214919 3.8470225143 3.998580214 3.9351812092 4.0144300017 3.8849483432 4.1232902252 4.0173307804 4.0564561018 
4.2180706762 4.0838652216 4.0950474152 4.1460983403 4.1449561824 4.140898739 4.2901073317 4.1331934754 4.3225443125 
4.2735771775 4.3442319574 4.4659796656 4.3719308628 4.3858589283 4.5673941834 4.4482321535 4.4199941935 4.6430756062 
4.5078017593 4.4571716433 4.5976318998 4.5898695461 4.5492217837 4.7081234111 4.7720829647 4.7246425239 4.7605140536 
4.9256199682 4.8309757092 4.8011406281 5.0276784647 4.9131038702 4.8326680256 5.1054633776 4.9818402492 5.1716579183 
5.0396774029 5.188441929 5.1738181869 5.0506693705 5.2247702821 5.3516457084 5.3036850325 5.2704015466 5.4974523645 
5.4102395997 5.3113121505 5.6102914335 5.4983494922 5.6905539636 5.5734828305 5.7563208555 5.6401234589 5.7520307429 
5.7530346645 5.6741438528 5.8114633461 5.9233476074 5.9156740463 5.8593773105 6.0743134888 6.0403415664 5.9060362745 
6.2147443553 6.1424510197 6.3430511626 6.2300261128 6.4274616288 6.3062747961 6.4895921162 6.3766368024 6.5450231931 
6.4477584218 6.6201531101 6.6312417622 6.4487433859 6.5973983706 6.7922270142 6.8159741238 6.652531559 6.9579301849 
6.9732595513 7.1096451274 7.0929088299 7.2397179263 7.177978114 7.3559103931 7.2512632416 7.4417958212 7.3192854371 
7.4997295925 7.3861627863 7.4638640821 7.4640619617 7.4541391557 7.5528524946 7.6238790446 7.6302187959 7.608202763 
7.7912559825 7.8087000099 7.9670040381 7.9938992376 8.1439508402 8.179043622 8.317631044 8.3593300079 8.4846558047 
8.5290344129 8.6394422848 8.6730748523 8.7672689695 8.7617053958 8.8721197683 8.8198044815 8.9601764245 8.8732062568 
9.0196621274 8.9309079772 9.0225442387 9.023412221 8.9664213853 9.077646091 9.1597831498 9.1652151131 9.1463436894 
9.3163923812 9.3264180702 9.4840342176 9.4984916653 9.6569956937 9.6757734783 9.8322898968 9.855108834 10.008175809 
10.034714194 10.183547945 10.213576167 10.357837255 10.391217053 10.530826561 10.567449668 10.702508126 10.742263594 